+ 0 /NodeList/3/DeviceList/0/$ns3::CsmaNetDevice/TxQueue/Enqueue ns3::EthernetHeader ( length/type=0x86dd, source=00:00:00:00:00:05, destination=33:33:ff:00:00:05) ns3::Ipv6Header ((Version 6 Traffic class 0x0 Flow Label 0x0 Payload Length 32 Next Header 58 Hop Limit 255 ):: > ff02::1) ns3::Icmpv6NS (( type = 135 (NS) code = 0 checksum = 5497)) ns3::Icmpv6OptionLinkLayerAddress (( type = 1 length = 1 L2 Address = 00-06-00:00:00:00:00:05)) ns3::EthernetTrailer (fcs=0)
- 0 /NodeList/3/DeviceList/0/$ns3::CsmaNetDevice/TxQueue/Dequeue ns3::EthernetHeader ( length/type=0x86dd, source=00:00:00:00:00:05, destination=33:33:ff:00:00:05) ns3::Ipv6Header ((Version 6 Traffic class 0x0 Flow Label 0x0 Payload Length 32 Next Header 58 Hop Limit 255 ):: > ff02::1) ns3::Icmpv6NS (( type = 135 (NS) code = 0 checksum = 5497)) ns3::Icmpv6OptionLinkLayerAddress (( type = 1 length = 1 L2 Address = 00-06-00:00:00:00:00:05)) ns3::EthernetTrailer (fcs=0)
+ 0 /NodeList/3/DeviceList/1/$ns3::CsmaNetDevice/TxQueue/Enqueue ns3::EthernetHeader ( length/type=0x86dd, source=00:00:00:00:00:07, destination=33:33:ff:00:00:07) ns3::Ipv6Header ((Version 6 Traffic class 0x0 Flow Label 0x0 Payload Length 32 Next Header 58 Hop Limit 255 ):: > ff02::1) ns3::Icmpv6NS (( type = 135 (NS) code = 0 checksum = 36439)) ns3::Icmpv6OptionLinkLayerAddress (( type = 1 length = 1 L2 Address = 00-06-00:00:00:00:00:07)) ns3::EthernetTrailer (fcs=0)
- 0 /NodeList/3/DeviceList/1/$ns3::CsmaNetDevice/TxQueue/Dequeue ns3::EthernetHeader ( length/type=0x86dd, source=00:00:00:00:00:07, destination=33:33:ff:00:00:07) ns3::Ipv6Header ((Version 6 Traffic class 0x0 Flow Label 0x0 Payload Length 32 Next Header 58 Hop Limit 255 ):: > ff02::1) ns3::Icmpv6NS (( type = 135 (NS) code = 0 checksum = 36439)) ns3::Icmpv6OptionLinkLayerAddress (( type = 1 length = 1 L2 Address = 00-06-00:00:00:00:00:07)) ns3::EthernetTrailer (fcs=0)
+ 0.002 /NodeList/5/DeviceList/0/$ns3::CsmaNetDevice/TxQueue/Enqueue ns3::EthernetHeader ( length/type=0x86dd, source=00:00:00:00:00:08, destination=33:33:ff:00:00:08) ns3::Ipv6Header ((Version 6 Traffic class 0x0 Flow Label 0x0 Payload Length 32 Next Header 58 Hop Limit 255 ):: > ff02::1) ns3::Icmpv6NS (( type = 135 (NS) code = 0 checksum = 35927)) ns3::Icmpv6OptionLinkLayerAddress (( type = 1 length = 1 L2 Address = 00-06-00:00:00:00:00:08)) ns3::EthernetTrailer (fcs=0)
- 0.002 /NodeList/5/DeviceList/0/$ns3::CsmaNetDevice/TxQueue/Dequeue ns3::EthernetHeader ( length/type=0x86dd, source=00:00:00:00:00:08, destination=33:33:ff:00:00:08) ns3::Ipv6Header ((Version 6 Traffic class 0x0 Flow Label 0x0 Payload Length 32 Next Header 58 Hop Limit 255 ):: > ff02::1) ns3::Icmpv6NS (( type = 135 (NS) code = 0 checksum = 35927)) ns3::Icmpv6OptionLinkLayerAddress (( type = 1 length = 1 L2 Address = 00-06-00:00:00:00:00:08)) ns3::EthernetTrailer (fcs=0)
+ 0.002 /NodeList/5/DeviceList/2/$ns3::CsmaNetDevice/TxQueue/Enqueue ns3::EthernetHeader ( length/type=0x86dd, source=00:00:00:00:00:0b, destination=33:33:ff:00:00:0b) ns3::Ipv6Header ((Version 6 Traffic class 0x0 Flow Label 0x0 Payload Length 32 Next Header 58 Hop Limit 255 ):: > ff02::1) ns3::Icmpv6NS (( type = 135 (NS) code = 0 checksum = 34647)) ns3::Icmpv6OptionLinkLayerAddress (( type = 1 length = 1 L2 Address = 00-06-00:00:00:00:00:0b)) ns3::EthernetTrailer (fcs=0)
- 0.002 /NodeList/5/DeviceList/2/$ns3::CsmaNetDevice/TxQueue/Dequeue ns3::EthernetHeader ( length/type=0x86dd, source=00:00:00:00:00:0b, destination=33:33:ff:00:00:0b) ns3::Ipv6Header ((Version 6 Traffic class 0x0 Flow Label 0x0 Payload Length 32 Next Header 58 Hop Limit 255 ):: > ff02::1) ns3::Icmpv6NS (( type = 135 (NS) code = 0 checksum = 34647)) ns3::Icmpv6OptionLinkLayerAddress (( type = 1 length = 1 L2 Address = 00-06-00:00:00:00:00:0b)) ns3::EthernetTrailer (fcs=0)
r 0.002144 /NodeList/4/DeviceList/1/$ns3::CsmaNetDevice/MacRx ns3::EthernetHeader ( length/type=0x86dd, source=00:00:00:00:00:05, destination=33:33:ff:00:00:05) ns3::Ipv6Header ((Version 6 Traffic class 0x0 Flow Label 0x0 Payload Length 32 Next Header 58 Hop Limit 255 ):: > ff02::1) ns3::Icmpv6NS (( type = 135 (NS) code = 0 checksum = 5497)) ns3::Icmpv6OptionLinkLayerAddress (( type = 1 length = 1 L2 Address = 00-06-00:00:00:00:00:05)) ns3::EthernetTrailer (fcs=0)
r 0.002144 /NodeList/5/DeviceList/0/$ns3::CsmaNetDevice/MacRx ns3::EthernetHeader ( length/type=0x86dd, source=00:00:00:00:00:07, destination=33:33:ff:00:00:07) ns3::Ipv6Header ((Version 6 Traffic class 0x0 Flow Label 0x0 Payload Length 32 Next Header 58 Hop Limit 255 ):: > ff02::1) ns3::Icmpv6NS (( type = 135 (NS) code = 0 checksum = 36439)) ns3::Icmpv6OptionLinkLayerAddress (( type = 1 length = 1 L2 Address = 00-06-00:00:00:00:00:07)) ns3::EthernetTrailer (fcs=0)
+ 0.003 /NodeList/2/DeviceList/1/$ns3::CsmaNetDevice/TxQueue/Enqueue ns3::EthernetHeader ( length/type=0x86dd, source=00:00:00:00:00:03, destination=33:33:ff:00:00:03) ns3::Ipv6Header ((Version 6 Traffic class 0x0 Flow Label 0x0 Payload Length 32 Next Header 58 Hop Limit 255 ):: > ff02::1) ns3::Icmpv6NS (( type = 135 (NS) code = 0 checksum = 6521)) ns3::Icmpv6OptionLinkLayerAddress (( type = 1 length = 1 L2 Address = 00-06-00:00:00:00:00:03)) ns3::EthernetTrailer (fcs=0)
- 0.003 /NodeList/2/DeviceList/1/$ns3::CsmaNetDevice/TxQueue/Dequeue ns3::EthernetHeader ( length/type=0x86dd, source=00:00:00:00:00:03, destination=33:33:ff:00:00:03) ns3::Ipv6Header ((Version 6 Traffic class 0x0 Flow Label 0x0 Payload Length 32 Next Header 58 Hop Limit 255 ):: > ff02::1) ns3::Icmpv6NS (( type = 135 (NS) code = 0 checksum = 6521)) ns3::Icmpv6OptionLinkLayerAddress (( type = 1 length = 1 L2 Address = 00-06-00:00:00:00:00:03)) ns3::EthernetTrailer (fcs=0)
+ 0.003 /NodeList/4/DeviceList/1/$ns3::CsmaNetDevice/TxQueue/Enqueue ns3::EthernetHeader ( length/type=0x86dd, source=00:00:00:00:00:06, destination=33:33:ff:00:00:06) ns3::Ipv6Header ((Version 6 Traffic class 0x0 Flow Label 0x0 Payload Length 32 Next Header 58 Hop Limit 255 ):: > ff02::1) ns3::Icmpv6NS (( type = 135 (NS) code = 0 checksum = 37207)) ns3::Icmpv6OptionLinkLayerAddress (( type = 1 length = 1 L2 Address = 00-06-00:00:00:00:00:06)) ns3::EthernetTrailer (fcs=0)
- 0.003 /NodeList/4/DeviceList/1/$ns3::CsmaNetDevice/TxQueue/Dequeue ns3::EthernetHeader ( length/type=0x86dd, source=00:00:00:00:00:06, destination=33:33:ff:00:00:06) ns3::Ipv6Header ((Version 6 Traffic class 0x0 Flow Label 0x0 Payload Length 32 Next Header 58 Hop Limit 255 ):: > ff02::1) ns3::Icmpv6NS (( type = 135 (NS) code = 0 checksum = 37207)) ns3::Icmpv6OptionLinkLayerAddress (( type = 1 length = 1 L2 Address = 00-06-00:00:00:00:00:06)) ns3::EthernetTrailer (fcs=0)
+ 0.003 /NodeList/5/DeviceList/1/$ns3::CsmaNetDevice/TxQueue/Enqueue ns3::EthernetHeader ( length/type=0x86dd, source=00:00:00:00:00:0a, destination=33:33:ff:00:00:0a) ns3::Ipv6Header ((Version 6 Traffic class 0x0 Flow Label 0x0 Payload Length 32 Next Header 58 Hop Limit 255 ):: > ff02::1) ns3::Icmpv6NS (( type = 135 (NS) code = 0 checksum = 2937)) ns3::Icmpv6OptionLinkLayerAddress (( type = 1 length = 1 L2 Address = 00-06-00:00:00:00:00:0a)) ns3::EthernetTrailer (fcs=0)
- 0.003 /NodeList/5/DeviceList/1/$ns3::CsmaNetDevice/TxQueue/Dequeue ns3::EthernetHeader ( length/type=0x86dd, source=00:00:00:00:00:0a, destination=33:33:ff:00:00:0a) ns3::Ipv6Header ((Version 6 Traffic class 0x0 Flow Label 0x0 Payload Length 32 Next Header 58 Hop Limit 255 ):: > ff02::1) ns3::Icmpv6NS (( type = 135 (NS) code = 0 checksum = 2937)) ns3::Icmpv6OptionLinkLayerAddress (( type = 1 length = 1 L2 Address = 00-06-00:00:00:00:00:0a)) ns3::EthernetTrailer (fcs=0)
+ 0.004 /NodeList/2/DeviceList/0/$ns3::CsmaNetDevice/TxQueue/Enqueue ns3::EthernetHeader ( length/type=0x86dd, source=00:00:00:00:00:02, destination=33:33:ff:00:00:02) ns3::Ipv6Header ((Version 6 Traffic class 0x0 Flow Label 0x0 Payload Length 32 Next Header 58 Hop Limit 255 ):: > ff02::1) ns3::Icmpv6NS (( type = 135 (NS) code = 0 checksum = 7033)) ns3::Icmpv6OptionLinkLayerAddress (( type = 1 length = 1 L2 Address = 00-06-00:00:00:00:00:02)) ns3::EthernetTrailer (fcs=0)
- 0.004 /NodeList/2/DeviceList/0/$ns3::CsmaNetDevice/TxQueue/Dequeue ns3::EthernetHeader ( length/type=0x86dd, source=00:00:00:00:00:02, destination=33:33:ff:00:00:02) ns3::Ipv6Header ((Version 6 Traffic class 0x0 Flow Label 0x0 Payload Length 32 Next Header 58 Hop Limit 255 ):: > ff02::1) ns3::Icmpv6NS (( type = 135 (NS) code = 0 checksum = 7033)) ns3::Icmpv6OptionLinkLayerAddress (( type = 1 length = 1 L2 Address = 00-06-00:00:00:00:00:02)) ns3::EthernetTrailer (fcs=0)
+ 0.004 /NodeList/2/DeviceList/1/$ns3::CsmaNetDevice/TxQueue/Enqueue ns3::EthernetHeader ( length/type=0x86dd, source=00:00:00:00:00:03, destination=33:33:ff:00:00:03) ns3::Ipv6Header ((Version 6 Traffic class 0x0 Flow Label 0x0 Payload Length 32 Next Header 58 Hop Limit 255 ):: > ff02::1) ns3::Icmpv6NS (( type = 135 (NS) code = 0 checksum = 38999)) ns3::Icmpv6OptionLinkLayerAddress (( type = 1 length = 1 L2 Address = 00-06-00:00:00:00:00:03)) ns3::EthernetTrailer (fcs=0)
- 0.004 /NodeList/2/DeviceList/1/$ns3::CsmaNetDevice/TxQueue/Dequeue ns3::EthernetHeader ( length/type=0x86dd, source=00:00:00:00:00:03, destination=33:33:ff:00:00:03) ns3::Ipv6Header ((Version 6 Traffic class 0x0 Flow Label 0x0 Payload Length 32 Next Header 58 Hop Limit 255 ):: > ff02::1) ns3::Icmpv6NS (( type = 135 (NS) code = 0 checksum = 38999)) ns3::Icmpv6OptionLinkLayerAddress (( type = 1 length = 1 L2 Address = 00-06-00:00:00:00:00:03)) ns3::EthernetTrailer (fcs=0)
+ 0.004 /NodeList/3/DeviceList/1/$ns3::CsmaNetDevice/TxQueue/Enqueue ns3::EthernetHeader ( length/type=0x86dd, source=00:00:00:00:00:07, destination=33:33:ff:00:00:07) ns3::Ipv6Header ((Version 6 Traffic class 0x0 Flow Label 0x0 Payload Length 32 Next Header 58 Hop Limit 255 ):: > ff02::1) ns3::Icmpv6NS (( type = 135 (NS) code = 0 checksum = 4473)) ns3::Icmpv6OptionLinkLayerAddress (( type = 1 length = 1 L2 Address = 00-06-00:00:00:00:00:07)) ns3::EthernetTrailer (fcs=0)
- 0.004 /NodeList/3/DeviceList/1/$ns3::CsmaNetDevice/TxQueue/Dequeue ns3::EthernetHeader ( length/type=0x86dd, source=00:00:00:00:00:07, destination=33:33:ff:00:00:07) ns3::Ipv6Header ((Version 6 Traffic class 0x0 Flow Label 0x0 Payload Length 32 Next Header 58 Hop Limit 255 ):: > ff02::1) ns3::Icmpv6NS (( type = 135 (NS) code = 0 checksum = 4473)) ns3::Icmpv6OptionLinkLayerAddress (( type = 1 length = 1 L2 Address = 00-06-00:00:00:00:00:07)) ns3::EthernetTrailer (fcs=0)
r 0.004144 /NodeList/1/DeviceList/0/$ns3::CsmaNetDevice/MacRx ns3::EthernetHeader ( length/type=0x86dd, source=00:00:00:00:00:0b, destination=33:33:ff:00:00:0b) ns3::Ipv6Header ((Version 6 Traffic class 0x0 Flow Label 0x0 Payload Length 32 Next Header 58 Hop Limit 255 ):: > ff02::1) ns3::Icmpv6NS (( type = 135 (NS) code = 0 checksum = 34647)) ns3::Icmpv6OptionLinkLayerAddress (( type = 1 length = 1 L2 Address = 00-06-00:00:00:00:00:0b)) ns3::EthernetTrailer (fcs=0)
r 0.004492 /NodeList/3/DeviceList/1/$ns3::CsmaNetDevice/MacRx ns3::EthernetHeader ( length/type=0x86dd, source=00:00:00:00:00:08, destination=33:33:ff:00:00:08) ns3::Ipv6Header ((Version 6 Traffic class 0x0 Flow Label 0x0 Payload Length 32 Next Header 58 Hop Limit 255 ):: > ff02::1) ns3::Icmpv6NS (( type = 135 (NS) code = 0 checksum = 35927)) ns3::Icmpv6OptionLinkLayerAddress (( type = 1 length = 1 L2 Address = 00-06-00:00:00:00:00:08)) ns3::EthernetTrailer (fcs=0)
+ 0.005 /NodeList/5/DeviceList/2/$ns3::CsmaNetDevice/TxQueue/Enqueue ns3::EthernetHeader ( length/type=0x86dd, source=00:00:00:00:00:0b, destination=33:33:ff:00:00:0b) ns3::Ipv6Header ((Version 6 Traffic class 0x0 Flow Label 0x0 Payload Length 32 Next Header 58 Hop Limit 255 ):: > ff02::1) ns3::Icmpv6NS (( type = 135 (NS) code = 0 checksum = 2425)) ns3::Icmpv6OptionLinkLayerAddress (( type = 1 length = 1 L2 Address = 00-06-00:00:00:00:00:0b)) ns3::EthernetTrailer (fcs=0)
- 0.005 /NodeList/5/DeviceList/2/$ns3::CsmaNetDevice/TxQueue/Dequeue ns3::EthernetHeader ( length/type=0x86dd, source=00:00:00:00:00:0b, destination=33:33:ff:00:00:0b) ns3::Ipv6Header ((Version 6 Traffic class 0x0 Flow Label 0x0 Payload Length 32 Next Header 58 Hop Limit 255 ):: > ff02::1) ns3::Icmpv6NS (( type = 135 (NS) code = 0 checksum = 2425)) ns3::Icmpv6OptionLinkLayerAddress (( type = 1 length = 1 L2 Address = 00-06-00:00:00:00:00:0b)) ns3::EthernetTrailer (fcs=0)
+ 0.005 /NodeList/1/DeviceList/0/$ns3::CsmaNetDevice/TxQueue/Enqueue ns3::EthernetHeader ( length/type=0x86dd, source=00:00:00:00:00:0c, destination=33:33:ff:00:00:0c) ns3::Ipv6Header ((Version 6 Traffic class 0x0 Flow Label 0x0 Payload Length 32 Next Header 58 Hop Limit 255 ):: > ff02::1) ns3::Icmpv6NS (( type = 135 (NS) code = 0 checksum = 1913)) ns3::Icmpv6OptionLinkLayerAddress (( type = 1 length = 1 L2 Address = 00-06-00:00:00:00:00:0c)) ns3::EthernetTrailer (fcs=0)
- 0.005 /NodeList/1/DeviceList/0/$ns3::CsmaNetDevice/TxQueue/Dequeue ns3::EthernetHeader ( length/type=0x86dd, source=00:00:00:00:00:0c, destination=33:33:ff:00:00:0c) ns3::Ipv6Header ((Version 6 Traffic class 0x0 Flow Label 0x0 Payload Length 32 Next Header 58 Hop Limit 255 ):: > ff02::1) ns3::Icmpv6NS (( type = 135 (NS) code = 0 checksum = 1913)) ns3::Icmpv6OptionLinkLayerAddress (( type = 1 length = 1 L2 Address = 00-06-00:00:00:00:00:0c)) ns3::EthernetTrailer (fcs=0)
+ 0.005 /NodeList/1/DeviceList/0/$ns3::CsmaNetDevice/TxQueue/Enqueue ns3::EthernetHeader ( length/type=0x86dd, source=00:00:00:00:00:0c, destination=33:33:ff:00:00:0c) ns3::Ipv6Header ((Version 6 Traffic class 0x0 Flow Label 0x0 Payload Length 32 Next Header 58 Hop Limit 255 ):: > ff02::1) ns3::Icmpv6NS (( type = 135 (NS) code = 0 checksum = 34135)) ns3::Icmpv6OptionLinkLayerAddress (( type = 1 length = 1 L2 Address = 00-06-00:00:00:00:00:0c)) ns3::EthernetTrailer (fcs=0)
r 0.005144 /NodeList/4/DeviceList/0/$ns3::CsmaNetDevice/MacRx ns3::EthernetHeader ( length/type=0x86dd, source=00:00:00:00:00:03, destination=33:33:ff:00:00:03) ns3::Ipv6Header ((Version 6 Traffic class 0x0 Flow Label 0x0 Payload Length 32 Next Header 58 Hop Limit 255 ):: > ff02::1) ns3::Icmpv6NS (( type = 135 (NS) code = 0 checksum = 6521)) ns3::Icmpv6OptionLinkLayerAddress (( type = 1 length = 1 L2 Address = 00-06-00:00:00:00:00:03)) ns3::EthernetTrailer (fcs=0)
r 0.005144 /NodeList/3/DeviceList/0/$ns3::CsmaNetDevice/MacRx ns3::EthernetHeader ( length/type=0x86dd, source=00:00:00:00:00:06, destination=33:33:ff:00:00:06) ns3::Ipv6Header ((Version 6 Traffic class 0x0 Flow Label 0x0 Payload Length 32 Next Header 58 Hop Limit 255 ):: > ff02::1) ns3::Icmpv6NS (( type = 135 (NS) code = 0 checksum = 37207)) ns3::Icmpv6OptionLinkLayerAddress (( type = 1 length = 1 L2 Address = 00-06-00:00:00:00:00:06)) ns3::EthernetTrailer (fcs=0)
r 0.005144 /NodeList/4/DeviceList/2/$ns3::CsmaNetDevice/MacRx ns3::EthernetHeader ( length/type=0x86dd, source=00:00:00:00:00:0a, destination=33:33:ff:00:00:0a) ns3::Ipv6Header ((Version 6 Traffic class 0x0 Flow Label 0x0 Payload Length 32 Next Header 58 Hop Limit 255 ):: > ff02::1) ns3::Icmpv6NS (( type = 135 (NS) code = 0 checksum = 2937)) ns3::Icmpv6OptionLinkLayerAddress (( type = 1 length = 1 L2 Address = 00-06-00:00:00:00:00:0a)) ns3::EthernetTrailer (fcs=0)
+ 0.006 /NodeList/0/DeviceList/0/$ns3::CsmaNetDevice/TxQueue/Enqueue ns3::EthernetHeader ( length/type=0x86dd, source=00:00:00:00:00:01, destination=33:33:ff:00:00:01) ns3::Ipv6Header ((Version 6 Traffic class 0x0 Flow Label 0x0 Payload Length 32 Next Header 58 Hop Limit 255 ):: > ff02::1) ns3::Icmpv6NS (( type = 135 (NS) code = 0 checksum = 7545)) ns3::Icmpv6OptionLinkLayerAddress (( type = 1 length = 1 L2 Address = 00-06-00:00:00:00:00:01)) ns3::EthernetTrailer (fcs=0)
- 0.006 /NodeList/0/DeviceList/0/$ns3::CsmaNetDevice/TxQueue/Dequeue ns3::EthernetHeader ( length/type=0x86dd, source=00:00:00:00:00:01, destination=33:33:ff:00:00:01) ns3::Ipv6Header ((Version 6 Traffic class 0x0 Flow Label 0x0 Payload Length 32 Next Header 58 Hop Limit 255 ):: > ff02::1) ns3::Icmpv6NS (( type = 135 (NS) code = 0 checksum = 7545)) ns3::Icmpv6OptionLinkLayerAddress (( type = 1 length = 1 L2 Address = 00-06-00:00:00:00:00:01)) ns3::EthernetTrailer (fcs=0)
+ 0.006 /NodeList/4/DeviceList/0/$ns3::CsmaNetDevice/TxQueue/Enqueue ns3::EthernetHeader ( length/type=0x86dd, source=00:00:00:00:00:04, destination=33:33:ff:00:00:04) ns3::Ipv6Header ((Version 6 Traffic class 0x0 Flow Label 0x0 Payload Length 32 Next Header 58 Hop Limit 255 ):: > ff02::1) ns3::Icmpv6NS (( type = 135 (NS) code = 0 checksum = 6009)) ns3::Icmpv6OptionLinkLayerAddress (( type = 1 length = 1 L2 Address = 00-06-00:00:00:00:00:04)) ns3::EthernetTrailer (fcs=0)
- 0.006 /NodeList/4/DeviceList/0/$ns3::CsmaNetDevice/TxQueue/Dequeue ns3::EthernetHeader ( length/type=0x86dd, source=00:00:00:00:00:04, destination=33:33:ff:00:00:04) ns3::Ipv6Header ((Version 6 Traffic class 0x0 Flow Label 0x0 Payload Length 32 Next Header 58 Hop Limit 255 ):: > ff02::1) ns3::Icmpv6NS (( type = 135 (NS) code = 0 checksum = 6009)) ns3::Icmpv6OptionLinkLayerAddress (( type = 1 length = 1 L2 Address = 00-06-00:00:00:00:00:04)) ns3::EthernetTrailer (fcs=0)
+ 0.006 /NodeList/4/DeviceList/0/$ns3::CsmaNetDevice/TxQueue/Enqueue ns3::EthernetHeader ( length/type=0x86dd, source=00:00:00:00:00:04, destination=33:33:ff:00:00:04) ns3::Ipv6Header ((Version 6 Traffic class 0x0 Flow Label 0x0 Payload Length 32 Next Header 58 Hop Limit 255 ):: > ff02::1) ns3::Icmpv6NS (( type = 135 (NS) code = 0 checksum = 38487)) ns3::Icmpv6OptionLinkLayerAddress (( type = 1 length = 1 L2 Address = 00-06-00:00:00:00:00:04)) ns3::EthernetTrailer (fcs=0)
+ 0.006 /NodeList/4/DeviceList/1/$ns3::CsmaNetDevice/TxQueue/Enqueue ns3::EthernetHeader ( length/type=0x86dd, source=00:00:00:00:00:06, destination=33:33:ff:00:00:06) ns3::Ipv6Header ((Version 6 Traffic class 0x0 Flow Label 0x0 Payload Length 32 Next Header 58 Hop Limit 255 ):: > ff02::1) ns3::Icmpv6NS (( type = 135 (NS) code = 0 checksum = 4985)) ns3::Icmpv6OptionLinkLayerAddress (( type = 1 length = 1 L2 Address = 00-06-00:00:00:00:00:06)) ns3::EthernetTrailer (fcs=0)
- 0.006 /NodeList/4/DeviceList/1/$ns3::CsmaNetDevice/TxQueue/Dequeue ns3::EthernetHeader ( length/type=0x86dd, source=00:00:00:00:00:06, destination=33:33:ff:00:00:06) ns3::Ipv6Header ((Version 6 Traffic class 0x0 Flow Label 0x0 Payload Length 32 Next Header 58 Hop Limit 255 ):: > ff02::1) ns3::Icmpv6NS (( type = 135 (NS) code = 0 checksum = 4985)) ns3::Icmpv6OptionLinkLayerAddress (( type = 1 length = 1 L2 Address = 00-06-00:00:00:00:00:06)) ns3::EthernetTrailer (fcs=0)
+ 0.006 /NodeList/5/DeviceList/0/$ns3::CsmaNetDevice/TxQueue/Enqueue ns3::EthernetHeader ( length/type=0x86dd, source=00:00:00:00:00:08, destination=33:33:ff:00:00:08) ns3::Ipv6Header ((Version 6 Traffic class 0x0 Flow Label 0x0 Payload Length 32 Next Header 58 Hop Limit 255 ):: > ff02::1) ns3::Icmpv6NS (( type = 135 (NS) code = 0 checksum = 3961)) ns3::Icmpv6OptionLinkLayerAddress (( type = 1 length = 1 L2 Address = 00-06-00:00:00:00:00:08)) ns3::EthernetTrailer (fcs=0)
- 0.006 /NodeList/5/DeviceList/0/$ns3::CsmaNetDevice/TxQueue/Dequeue ns3::EthernetHeader ( length/type=0x86dd, source=00:00:00:00:00:08, destination=33:33:ff:00:00:08) ns3::Ipv6Header ((Version 6 Traffic class 0x0 Flow Label 0x0 Payload Length 32 Next Header 58 Hop Limit 255 ):: > ff02::1) ns3::Icmpv6NS (( type = 135 (NS) code = 0 checksum = 3961)) ns3::Icmpv6OptionLinkLayerAddress (( type = 1 length = 1 L2 Address = 00-06-00:00:00:00:00:08)) ns3::EthernetTrailer (fcs=0)
+ 0.006 /NodeList/4/DeviceList/2/$ns3::CsmaNetDevice/TxQueue/Enqueue ns3::EthernetHeader ( length/type=0x86dd, source=00:00:00:00:00:09, destination=33:33:ff:00:00:09) ns3::Ipv6Header ((Version 6 Traffic class 0x0 Flow Label 0x0 Payload Length 32 Next Header 58 Hop Limit 255 ):: > ff02::1) ns3::Icmpv6NS (( type = 135 (NS) code = 0 checksum = 3449)) ns3::Icmpv6OptionLinkLayerAddress (( type = 1 length = 1 L2 Address = 00-06-00:00:00:00:00:09)) ns3::EthernetTrailer (fcs=0)
- 0.006 /NodeList/4/DeviceList/2/$ns3::CsmaNetDevice/TxQueue/Dequeue ns3::EthernetHeader ( length/type=0x86dd, source=00:00:00:00:00:09, destination=33:33:ff:00:00:09) ns3::Ipv6Header ((Version 6 Traffic class 0x0 Flow Label 0x0 Payload Length 32 Next Header 58 Hop Limit 255 ):: > ff02::1) ns3::Icmpv6NS (( type = 135 (NS) code = 0 checksum = 3449)) ns3::Icmpv6OptionLinkLayerAddress (( type = 1 length = 1 L2 Address = 00-06-00:00:00:00:00:09)) ns3::EthernetTrailer (fcs=0)
+ 0.006 /NodeList/5/DeviceList/1/$ns3::CsmaNetDevice/TxQueue/Enqueue ns3::EthernetHeader ( length/type=0x86dd, source=00:00:00:00:00:0a, destination=33:33:ff:00:00:0a) ns3::Ipv6Header ((Version 6 Traffic class 0x0 Flow Label 0x0 Payload Length 32 Next Header 58 Hop Limit 255 ):: > ff02::1) ns3::Icmpv6NS (( type = 135 (NS) code = 0 checksum = 34647)) ns3::Icmpv6OptionLinkLayerAddress (( type = 1 length = 1 L2 Address = 00-06-00:00:00:00:00:0a)) ns3::EthernetTrailer (fcs=0)
- 0.006 /NodeList/5/DeviceList/1/$ns3::CsmaNetDevice/TxQueue/Dequeue ns3::EthernetHeader ( length/type=0x86dd, source=00:00:00:00:00:0a, destination=33:33:ff:00:00:0a) ns3::Ipv6Header ((Version 6 Traffic class 0x0 Flow Label 0x0 Payload Length 32 Next Header 58 Hop Limit 255 ):: > ff02::1) ns3::Icmpv6NS (( type = 135 (NS) code = 0 checksum = 34647)) ns3::Icmpv6OptionLinkLayerAddress (( type = 1 length = 1 L2 Address = 00-06-00:00:00:00:00:0a)) ns3::EthernetTrailer (fcs=0)
r 0.006144 /NodeList/0/DeviceList/0/$ns3::CsmaNetDevice/MacRx ns3::EthernetHeader ( length/type=0x86dd, source=00:00:00:00:00:02, destination=33:33:ff:00:00:02) ns3::Ipv6Header ((Version 6 Traffic class 0x0 Flow Label 0x0 Payload Length 32 Next Header 58 Hop Limit 255 ):: > ff02::1) ns3::Icmpv6NS (( type = 135 (NS) code = 0 checksum = 7033)) ns3::Icmpv6OptionLinkLayerAddress (( type = 1 length = 1 L2 Address = 00-06-00:00:00:00:00:02)) ns3::EthernetTrailer (fcs=0)
r 0.006808 /NodeList/5/DeviceList/0/$ns3::CsmaNetDevice/MacRx ns3::EthernetHeader ( length/type=0x86dd, source=00:00:00:00:00:07, destination=33:33:ff:00:00:07) ns3::Ipv6Header ((Version 6 Traffic class 0x0 Flow Label 0x0 Payload Length 32 Next Header 58 Hop Limit 255 ):: > ff02::1) ns3::Icmpv6NS (( type = 135 (NS) code = 0 checksum = 4473)) ns3::Icmpv6OptionLinkLayerAddress (( type = 1 length = 1 L2 Address = 00-06-00:00:00:00:00:07)) ns3::EthernetTrailer (fcs=0)
+ 0.007 /NodeList/2/DeviceList/0/$ns3::CsmaNetDevice/TxQueue/Enqueue ns3::EthernetHeader ( length/type=0x86dd, source=00:00:00:00:00:02, destination=33:33:ff:00:00:02) ns3::Ipv6Header ((Version 6 Traffic class 0x0 Flow Label 0x0 Payload Length 32 Next Header 58 Hop Limit 255 ):: > ff02::1) ns3::Icmpv6NS (( type = 135 (NS) code = 0 checksum = 39511)) ns3::Icmpv6OptionLinkLayerAddress (( type = 1 length = 1 L2 Address = 00-06-00:00:00:00:00:02)) ns3::EthernetTrailer (fcs=0)
- 0.007 /NodeList/2/DeviceList/0/$ns3::CsmaNetDevice/TxQueue/Dequeue ns3::EthernetHeader ( length/type=0x86dd, source=00:00:00:00:00:02, destination=33:33:ff:00:00:02) ns3::Ipv6Header ((Version 6 Traffic class 0x0 Flow Label 0x0 Payload Length 32 Next Header 58 Hop Limit 255 ):: > ff02::1) ns3::Icmpv6NS (( type = 135 (NS) code = 0 checksum = 39511)) ns3::Icmpv6OptionLinkLayerAddress (( type = 1 length = 1 L2 Address = 00-06-00:00:00:00:00:02)) ns3::EthernetTrailer (fcs=0)
+ 0.007 /NodeList/3/DeviceList/0/$ns3::CsmaNetDevice/TxQueue/Enqueue ns3::EthernetHeader ( length/type=0x86dd, source=00:00:00:00:00:05, destination=33:33:ff:00:00:05) ns3::Ipv6Header ((Version 6 Traffic class 0x0 Flow Label 0x0 Payload Length 32 Next Header 58 Hop Limit 255 ):: > ff02::1) ns3::Icmpv6NS (( type = 135 (NS) code = 0 checksum = 37719)) ns3::Icmpv6OptionLinkLayerAddress (( type = 1 length = 1 L2 Address = 00-06-00:00:00:00:00:05)) ns3::EthernetTrailer (fcs=0)
- 0.007 /NodeList/3/DeviceList/0/$ns3::CsmaNetDevice/TxQueue/Dequeue ns3::EthernetHeader ( length/type=0x86dd, source=00:00:00:00:00:05, destination=33:33:ff:00:00:05) ns3::Ipv6Header ((Version 6 Traffic class 0x0 Flow Label 0x0 Payload Length 32 Next Header 58 Hop Limit 255 ):: > ff02::1) ns3::Icmpv6NS (( type = 135 (NS) code = 0 checksum = 37719)) ns3::Icmpv6OptionLinkLayerAddress (( type = 1 length = 1 L2 Address = 00-06-00:00:00:00:00:05)) ns3::EthernetTrailer (fcs=0)
r 0.007144 /NodeList/1/DeviceList/0/$ns3::CsmaNetDevice/MacRx ns3::EthernetHeader ( length/type=0x86dd, source=00:00:00:00:00:0b, destination=33:33:ff:00:00:0b) ns3::Ipv6Header ((Version 6 Traffic class 0x0 Flow Label 0x0 Payload Length 32 Next Header 58 Hop Limit 255 ):: > ff02::1) ns3::Icmpv6NS (( type = 135 (NS) code = 0 checksum = 2425)) ns3::Icmpv6OptionLinkLayerAddress (( type = 1 length = 1 L2 Address = 00-06-00:00:00:00:00:0b)) ns3::EthernetTrailer (fcs=0)
r 0.007373 /NodeList/4/DeviceList/0/$ns3::CsmaNetDevice/MacRx ns3::EthernetHeader ( length/type=0x86dd, source=00:00:00:00:00:03, destination=33:33:ff:00:00:03) ns3::Ipv6Header ((Version 6 Traffic class 0x0 Flow Label 0x0 Payload Length 32 Next Header 58 Hop Limit 255 ):: > ff02::1) ns3::Icmpv6NS (( type = 135 (NS) code = 0 checksum = 38999)) ns3::Icmpv6OptionLinkLayerAddress (( type = 1 length = 1 L2 Address = 00-06-00:00:00:00:00:03)) ns3::EthernetTrailer (fcs=0)
- 0.0073852 /NodeList/1/DeviceList/0/$ns3::CsmaNetDevice/TxQueue/Dequeue ns3::EthernetHeader ( length/type=0x86dd, source=00:00:00:00:00:0c, destination=33:33:ff:00:00:0c) ns3::Ipv6Header ((Version 6 Traffic class 0x0 Flow Label 0x0 Payload Length 32 Next Header 58 Hop Limit 255 ):: > ff02::1) ns3::Icmpv6NS (( type = 135 (NS) code = 0 checksum = 34135)) ns3::Icmpv6OptionLinkLayerAddress (( type = 1 length = 1 L2 Address = 00-06-00:00:00:00:00:0c)) ns3::EthernetTrailer (fcs=0)
- 0.0077232 /NodeList/4/DeviceList/0/$ns3::CsmaNetDevice/TxQueue/Dequeue ns3::EthernetHeader ( length/type=0x86dd, source=00:00:00:00:00:04, destination=33:33:ff:00:00:04) ns3::Ipv6Header ((Version 6 Traffic class 0x0 Flow Label 0x0 Payload Length 32 Next Header 58 Hop Limit 255 ):: > ff02::1) ns3::Icmpv6NS (( type = 135 (NS) code = 0 checksum = 38487)) ns3::Icmpv6OptionLinkLayerAddress (( type = 1 length = 1 L2 Address = 00-06-00:00:00:00:00:04)) ns3::EthernetTrailer (fcs=0)
+ 0.008 /NodeList/0/DeviceList/0/$ns3::CsmaNetDevice/TxQueue/Enqueue ns3::EthernetHeader ( length/type=0x86dd, source=00:00:00:00:00:01, destination=33:33:ff:00:00:01) ns3::Ipv6Header ((Version 6 Traffic class 0x0 Flow Label 0x0 Payload Length 32 Next Header 58 Hop Limit 255 ):: > ff02::1) ns3::Icmpv6NS (( type = 135 (NS) code = 0 checksum = 40023)) ns3::Icmpv6OptionLinkLayerAddress (( type = 1 length = 1 L2 Address = 00-06-00:00:00:00:00:01)) ns3::EthernetTrailer (fcs=0)
- 0.008 /NodeList/0/DeviceList/0/$ns3::CsmaNetDevice/TxQueue/Dequeue ns3::EthernetHeader ( length/type=0x86dd, source=00:00:00:00:00:01, destination=33:33:ff:00:00:01) ns3::Ipv6Header ((Version 6 Traffic class 0x0 Flow Label 0x0 Payload Length 32 Next Header 58 Hop Limit 255 ):: > ff02::1) ns3::Icmpv6NS (( type = 135 (NS) code = 0 checksum = 40023)) ns3::Icmpv6OptionLinkLayerAddress (( type = 1 length = 1 L2 Address = 00-06-00:00:00:00:00:01)) ns3::EthernetTrailer (fcs=0)
+ 0.008 /NodeList/4/DeviceList/2/$ns3::CsmaNetDevice/TxQueue/Enqueue ns3::EthernetHeader ( length/type=0x86dd, source=00:00:00:00:00:09, destination=33:33:ff:00:00:09) ns3::Ipv6Header ((Version 6 Traffic class 0x0 Flow Label 0x0 Payload Length 32 Next Header 58 Hop Limit 255 ):: > ff02::1) ns3::Icmpv6NS (( type = 135 (NS) code = 0 checksum = 35159)) ns3::Icmpv6OptionLinkLayerAddress (( type = 1 length = 1 L2 Address = 00-06-00:00:00:00:00:09)) ns3::EthernetTrailer (fcs=0)
- 0.008 /NodeList/4/DeviceList/2/$ns3::CsmaNetDevice/TxQueue/Dequeue ns3::EthernetHeader ( length/type=0x86dd, source=00:00:00:00:00:09, destination=33:33:ff:00:00:09) ns3::Ipv6Header ((Version 6 Traffic class 0x0 Flow Label 0x0 Payload Length 32 Next Header 58 Hop Limit 255 ):: > ff02::1) ns3::Icmpv6NS (( type = 135 (NS) code = 0 checksum = 35159)) ns3::Icmpv6OptionLinkLayerAddress (( type = 1 length = 1 L2 Address = 00-06-00:00:00:00:00:09)) ns3::EthernetTrailer (fcs=0)
r 0.008144 /NodeList/3/DeviceList/0/$ns3::CsmaNetDevice/MacRx ns3::EthernetHeader ( length/type=0x86dd, source=00:00:00:00:00:06, destination=33:33:ff:00:00:06) ns3::Ipv6Header ((Version 6 Traffic class 0x0 Flow Label 0x0 Payload Length 32 Next Header 58 Hop Limit 255 ):: > ff02::1) ns3::Icmpv6NS (( type = 135 (NS) code = 0 checksum = 4985)) ns3::Icmpv6OptionLinkLayerAddress (( type = 1 length = 1 L2 Address = 00-06-00:00:00:00:00:06)) ns3::EthernetTrailer (fcs=0)
r 0.008144 /NodeList/5/DeviceList/1/$ns3::CsmaNetDevice/MacRx ns3::EthernetHeader ( length/type=0x86dd, source=00:00:00:00:00:09, destination=33:33:ff:00:00:09) ns3::Ipv6Header ((Version 6 Traffic class 0x0 Flow Label 0x0 Payload Length 32 Next Header 58 Hop Limit 255 ):: > ff02::1) ns3::Icmpv6NS (( type = 135 (NS) code = 0 checksum = 3449)) ns3::Icmpv6OptionLinkLayerAddress (( type = 1 length = 1 L2 Address = 00-06-00:00:00:00:00:09)) ns3::EthernetTrailer (fcs=0)
r 0.008381 /NodeList/2/DeviceList/0/$ns3::CsmaNetDevice/MacRx ns3::EthernetHeader ( length/type=0x86dd, source=00:00:00:00:00:01, destination=33:33:ff:00:00:01) ns3::Ipv6Header ((Version 6 Traffic class 0x0 Flow Label 0x0 Payload Length 32 Next Header 58 Hop Limit 255 ):: > ff02::1) ns3::Icmpv6NS (( type = 135 (NS) code = 0 checksum = 7545)) ns3::Icmpv6OptionLinkLayerAddress (( type = 1 length = 1 L2 Address = 00-06-00:00:00:00:00:01)) ns3::EthernetTrailer (fcs=0)
r 0.009366 /NodeList/5/DeviceList/2/$ns3::CsmaNetDevice/MacRx ns3::EthernetHeader ( length/type=0x86dd, source=00:00:00:00:00:0c, destination=33:33:ff:00:00:0c) ns3::Ipv6Header ((Version 6 Traffic class 0x0 Flow Label 0x0 Payload Length 32 Next Header 58 Hop Limit 255 ):: > ff02::1) ns3::Icmpv6NS (( type = 135 (NS) code = 0 checksum = 1913)) ns3::Icmpv6OptionLinkLayerAddress (( type = 1 length = 1 L2 Address = 00-06-00:00:00:00:00:0c)) ns3::EthernetTrailer (fcs=0)